ITEM: TIMESTEP
570000
ITEM: NUMBER OF ATOMS
3
ITEM: BOX BOUNDS pp pp pp
2.9212887104134849e-01 3.4000116862142733e+01
-2.0402778275555207e+00 3.2369644558584852e+01
-6.2990604099098246e-01 3.2674388040997734e+01
ITEM: ATOMS id mol type x y z vx vy vz fx fy fz ix iy iz 
2919 28 5 7.94792 20.6139 28.9686 -0.00114494 0.00485862 -0.00587278 -0.380089 -0.439491 0.501685 1 0 1 
2918 28 5 8.96707 21.0296 30.0081 -0.000437127 -0.0164178 0.00195597 -0.356134 -0.168296 -0.823459 1 0 1 
2917 28 4 8.89071 20.6811 29.1198 -0.00104519 0.00212726 -0.00527551 -6.02526 -3.20734 4.25425 1 0 1 
