ITEM: TIMESTEP
50000
ITEM: NUMBER OF ATOMS
3
ITEM: BOX BOUNDS pp pp pp
2.9212887104134849e-01 3.4000116862142733e+01
-2.0402778275555207e+00 3.2369644558584852e+01
-6.2990604099098246e-01 3.2674388040997734e+01
ITEM: ATOMS id mol type x y z vx vy vz fx fy fz ix iy iz 
2919 28 5 7.63183 20.6557 29.5633 -0.00753348 -0.0120053 0.0101662 0.99179 0.569583 -0.220344 1 0 1 
2918 28 5 8.31531 19.3203 29.7669 0.00381062 -0.00421904 0.023171 1.58986 1.32599 -1.51348 1 0 1 
2917 28 4 8.47254 20.2639 29.7998 0.000156929 -0.00271915 -0.00174302 -1.33306 -0.987258 -5.8923 1 0 1 
