ITEM: TIMESTEP
700000
ITEM: NUMBER OF ATOMS
3
ITEM: BOX BOUNDS pp pp pp
2.9212887104134849e-01 3.4000116862142733e+01
-2.0402778275555207e+00 3.2369644558584852e+01
-6.2990604099098246e-01 3.2674388040997734e+01
ITEM: ATOMS id mol type x y z vx vy vz fx fy fz ix iy iz 
2918 28 5 8.09054 19.3013 29.9737 -0.00307773 -0.00434936 -0.00403916 0.168674 -0.496712 -0.622164 1 0 1 
2919 28 5 8.14863 19.6531 28.5024 -0.00672283 -0.00527577 -0.00440602 0.77157 -0.184958 -0.500301 1 0 1 
2917 28 4 8.6237 19.7624 29.3262 -0.00633167 -0.0020281 -0.00506337 0.958333 2.74654 -2.70794 1 0 1 
