ITEM: TIMESTEP
750000
ITEM: NUMBER OF ATOMS
3
ITEM: BOX BOUNDS pp pp pp
2.9212887104134849e-01 3.4000116862142733e+01
-2.0402778275555207e+00 3.2369644558584852e+01
-6.2990604099098246e-01 3.2674388040997734e+01
ITEM: ATOMS id mol type x y z vx vy vz fx fy fz ix iy iz 
2917 28 4 7.89742 20.6783 29.1325 -0.00689955 -0.00555184 0.00244623 -0.620249 1.96767 1.11161 1 0 1 
2918 28 5 7.41207 21.1835 29.7848 -0.0109523 -0.0204921 0.0109907 -0.0531343 -0.673704 -0.478016 1 0 1 
2919 28 5 8.81171 20.747 29.4075 -0.00645859 0.0047888 -0.00158909 -0.728114 0.171226 1.26535 1 0 1 
