ITEM: TIMESTEP
990000
ITEM: NUMBER OF ATOMS
3
ITEM: BOX BOUNDS pp pp pp
2.9212887104134849e-01 3.4000116862142733e+01
-2.0402778275555207e+00 3.2369644558584852e+01
-6.2990604099098246e-01 3.2674388040997734e+01
ITEM: ATOMS id mol type x y z vx vy vz fx fy fz ix iy iz 
2919 28 5 8.59313 20.6233 28.198 -0.00664207 -0.00229738 -0.0119739 -0.821736 -0.219153 0.318467 1 0 1 
2917 28 4 8.04498 20.4395 28.9609 0.00757641 -0.00156113 -0.00159217 1.6972 2.18144 1.43731 1 0 1 
2918 28 5 8.54316 19.7961 29.465 0.0155398 -0.00342124 -0.0118397 -0.320669 0.0434888 -0.428638 1 0 1 
