ITEM: TIMESTEP
560000
ITEM: NUMBER OF ATOMS
3
ITEM: BOX BOUNDS pp pp pp
2.9212887104134849e-01 3.4000116862142733e+01
-2.0402778275555207e+00 3.2369644558584852e+01
-6.2990604099098246e-01 3.2674388040997734e+01
ITEM: ATOMS id mol type x y z vx vy vz fx fy fz ix iy iz 
2919 28 5 7.97512 20.7486 30.4529 0.0201587 0.0176413 0.000241863 1.0657 -0.576535 -1.64683 1 0 1 
2917 28 4 8.35191 20.5712 29.591 0.0031025 -0.00438857 -0.00268145 0.991455 0.5653 -0.250443 1 0 1 
2918 28 5 8.99405 21.2692 29.4615 0.000432534 -0.00760388 -0.0332808 -1.33131 -1.89566 0.427254 1 0 1 
