ITEM: TIMESTEP
150000
ITEM: NUMBER OF ATOMS
3
ITEM: BOX BOUNDS pp pp pp
2.9212887104134849e-01 3.4000116862142733e+01
-2.0402778275555207e+00 3.2369644558584852e+01
-6.2990604099098246e-01 3.2674388040997734e+01
ITEM: ATOMS id mol type x y z vx vy vz fx fy fz ix iy iz 
2918 28 5 8.55535 21.2295 29.8199 0.00266535 0.00176528 -0.0240829 -0.284537 -1.15111 0.416426 1 0 1 
2917 28 4 8.67517 20.2801 29.8412 0.00121982 0.00209277 -0.000743335 5.24186 4.76709 -4.18221 1 0 1 
2919 28 5 9.58568 20.1591 30.1106 0.00597809 0.00761904 -0.0142679 -0.742178 -1.23565 0.553489 1 0 1 
