ITEM: TIMESTEP
810000
ITEM: NUMBER OF ATOMS
3
ITEM: BOX BOUNDS pp pp pp
2.9212887104134849e-01 3.4000116862142733e+01
-2.0402778275555207e+00 3.2369644558584852e+01
-6.2990604099098246e-01 3.2674388040997734e+01
ITEM: ATOMS id mol type x y z vx vy vz fx fy fz ix iy iz 
2919 28 5 9.81896 19.4012 30.3166 -0.0105755 -0.0187803 -0.00939296 0.932654 0.945373 -1.26583 1 0 1 
2918 28 5 9.15954 20.4768 29.4799 0.0057157 0.00330828 0.00615826 0.239637 -0.204852 0.669828 1 0 1 
2917 28 4 9.628 19.645 29.4109 -0.000647744 0.000763913 -0.00624687 -3.97252 2.39034 1.20539 1 0 1 
