ITEM: TIMESTEP
30000
ITEM: NUMBER OF ATOMS
3
ITEM: BOX BOUNDS pp pp pp
2.9212887104134849e-01 3.4000116862142733e+01
-2.0402778275555207e+00 3.2369644558584852e+01
-6.2990604099098246e-01 3.2674388040997734e+01
ITEM: ATOMS id mol type x y z vx vy vz fx fy fz ix iy iz 
2917 28 4 8.92483 20.3621 29.1588 -0.00580804 -0.000888875 -0.00116996 -3.48312 -0.0936992 3.14226 1 0 1 
2919 28 5 9.01446 19.8618 28.3477 -0.0113683 0.00764024 -0.00705713 0.336555 -0.463996 0.953383 1 0 1 
2918 28 5 9.82453 20.5103 29.4501 -0.00450748 -0.0242073 0.00665806 -1.58991 -0.538898 -0.319561 1 0 1 
