ITEM: TIMESTEP
520000
ITEM: NUMBER OF ATOMS
3
ITEM: BOX BOUNDS pp pp pp
2.9212887104134849e-01 3.4000116862142733e+01
-2.0402778275555207e+00 3.2369644558584852e+01
-6.2990604099098246e-01 3.2674388040997734e+01
ITEM: ATOMS id mol type x y z vx vy vz fx fy fz ix iy iz 
2919 28 5 8.777 20.4698 29.2922 -0.00128627 0.0228932 -0.00274305 -0.26287 2.20767 2.23567 1 0 1 
2918 28 5 7.37713 19.971 29.0034 0.00105799 0.0285602 -0.0239249 0.261685 2.70696 2.88852 1 0 1 
2917 28 4 7.86177 20.596 29.5426 -0.00116239 0.00313629 0.00758862 -1.07487 -7.15964 -8.23705 1 0 1 
