ITEM: TIMESTEP
330000
ITEM: NUMBER OF ATOMS
3
ITEM: BOX BOUNDS pp pp pp
2.9212887104134849e-01 3.4000116862142733e+01
-2.0402778275555207e+00 3.2369644558584852e+01
-6.2990604099098246e-01 3.2674388040997734e+01
ITEM: ATOMS id mol type x y z vx vy vz fx fy fz ix iy iz 
2919 28 5 7.04432 20.9828 28.5513 0.00880127 -0.00151047 -0.00462059 0.0956535 -0.219083 -0.222943 1 0 1 
2918 28 5 6.88283 19.8398 29.5308 -0.0167227 -0.0105672 -0.0194061 1.45511 -0.746932 -2.96066 1 0 1 
2917 28 4 7.41872 20.1363 28.7951 0.00739821 -9.52891e-05 0.00243498 1.27385 0.739084 3.03816 1 0 1 
