ITEM: TIMESTEP
770000
ITEM: NUMBER OF ATOMS
3
ITEM: BOX BOUNDS pp pp pp
2.9212887104134849e-01 3.4000116862142733e+01
-2.0402778275555207e+00 3.2369644558584852e+01
-6.2990604099098246e-01 3.2674388040997734e+01
ITEM: ATOMS id mol type x y z vx vy vz fx fy fz ix iy iz 
2918 28 5 6.83073 20.9077 29.5697 -0.0283471 0.0186863 -0.0203062 0.0444513 -2.90336 -2.75754 1 0 1 
2919 28 5 6.26044 19.9426 28.5522 0.014818 -0.0170412 -0.0106143 1.94481 0.420135 0.692293 1 0 1 
2917 28 4 7.08416 20.3269 28.8523 0.000604358 0.00311515 0.00254879 -0.198882 1.93466 2.64258 1 0 1 
