ITEM: TIMESTEP
460000
ITEM: NUMBER OF ATOMS
3
ITEM: BOX BOUNDS pp pp pp
2.9212887104134849e-01 3.4000116862142733e+01
-2.0402778275555207e+00 3.2369644558584852e+01
-6.2990604099098246e-01 3.2674388040997734e+01
ITEM: ATOMS id mol type x y z vx vy vz fx fy fz ix iy iz 
2919 28 5 6.62838 19.1487 28.8741 -0.00588612 -0.00555714 -0.0196609 0.64941 1.42872 0.213394 1 0 1 
2917 28 4 7.15355 19.9203 28.6616 -0.00623353 0.00070816 0.00217615 -2.84172 4.88502 -0.750126 1 0 1 
2918 28 5 7.53883 19.7207 27.8084 -0.016136 0.0302092 -0.00919613 -0.244404 1.34497 2.78458 1 0 1 
