ITEM: TIMESTEP
480000
ITEM: NUMBER OF ATOMS
3
ITEM: BOX BOUNDS pp pp pp
2.9212887104134849e-01 3.4000116862142733e+01
-2.0402778275555207e+00 3.2369644558584852e+01
-6.2990604099098246e-01 3.2674388040997734e+01
ITEM: ATOMS id mol type x y z vx vy vz fx fy fz ix iy iz 
2917 28 4 8.2605 20.3137 29.4212 -0.00538165 0.00138984 -0.00684707 -0.17084 0.667026 -0.205115 1 0 1 
2919 28 5 7.68071 19.6095 29.7114 -0.0204579 0.0123621 -0.010335 0.609861 0.193582 -1.396 1 0 1 
2918 28 5 8.76824 20.5427 30.1997 -0.0172214 0.00295453 0.000419765 -0.0111703 -0.060304 -0.58757 1 0 1 
