ITEM: TIMESTEP
650000
ITEM: NUMBER OF ATOMS
3
ITEM: BOX BOUNDS pp pp pp
2.9212887104134849e-01 3.4000116862142733e+01
-2.0402778275555207e+00 3.2369644558584852e+01
-6.2990604099098246e-01 3.2674388040997734e+01
ITEM: ATOMS id mol type x y z vx vy vz fx fy fz ix iy iz 
2917 28 4 8.70886 20.3323 29.4175 0.000190034 0.00823009 0.00396397 -1.09857 -0.155944 0.721889 1 0 1 
2918 28 5 8.61811 20.52 30.3517 -0.00251141 -0.0067562 0.00672112 1.56549 0.229905 -0.462827 1 0 1 
2919 28 5 8.94027 19.4042 29.3806 0.00511882 0.0100148 -0.0100331 -0.305563 0.507639 0.137609 1 0 1 
