ITEM: TIMESTEP
840000
ITEM: NUMBER OF ATOMS
3
ITEM: BOX BOUNDS pp pp pp
2.9212887104134849e-01 3.4000116862142733e+01
-2.0402778275555207e+00 3.2369644558584852e+01
-6.2990604099098246e-01 3.2674388040997734e+01
ITEM: ATOMS id mol type x y z vx vy vz fx fy fz ix iy iz 
2917 28 4 8.34132 20.1165 29.6288 0.00438683 -0.00189606 -0.00473446 0.842996 5.74156 -1.89992 1 0 1 
2918 28 5 7.41832 20.2556 29.8408 0.00331141 -0.00863968 -0.00500241 -0.0316215 0.0110815 -0.790298 1 0 1 
2919 28 5 8.37236 19.234 29.2595 0.0106178 -0.0008703 -0.0066524 0.520581 0.711951 -0.632518 1 0 1 
