ITEM: TIMESTEP
220000
ITEM: NUMBER OF ATOMS
3
ITEM: BOX BOUNDS pp pp pp
2.9212887104134849e-01 3.4000116862142733e+01
-2.0402778275555207e+00 3.2369644558584852e+01
-6.2990604099098246e-01 3.2674388040997734e+01
ITEM: ATOMS id mol type x y z vx vy vz fx fy fz ix iy iz 
2918 28 5 8.99371 20.3678 29.9492 0.0147542 0.0139581 -0.0214203 1.814 -1.45831 -0.165907 1 0 1 
2917 28 4 9.4856 19.6235 29.6023 0.00147172 -0.00437701 -0.000914715 -3.13171 2.59258 -0.141727 1 0 1 
2919 28 5 9.81837 19.173 30.3785 -0.0176283 0.00356234 0.011897 0.498666 1.84886 -1.16889 1 0 1 
