ITEM: TIMESTEP
1000000
ITEM: NUMBER OF ATOMS
3
ITEM: BOX BOUNDS pp pp pp
2.9212887104134849e-01 3.4000116862142733e+01
-2.0402778275555207e+00 3.2369644558584852e+01
-6.2990604099098246e-01 3.2674388040997734e+01
ITEM: ATOMS id mol type x y z vx vy vz fx fy fz ix iy iz 
2918 28 5 7.74917 19.2692 28.9362 -0.00473344 -0.00501782 0.00604327 0.319511 -0.0335233 0.138306 1 0 1 
2917 28 4 8.56395 19.7184 29.1611 -0.0051058 -0.00118002 -0.000277499 0.504355 3.62016 1.12287 1 0 1 
2919 28 5 9.02899 19.1026 29.7275 0.00610625 -0.00254538 -0.0109912 0.356233 0.343256 -1.10242 1 0 1 
