ITEM: TIMESTEP
630000
ITEM: NUMBER OF ATOMS
3
ITEM: BOX BOUNDS pp pp pp
2.9212887104134849e-01 3.4000116862142733e+01
-2.0402778275555207e+00 3.2369644558584852e+01
-6.2990604099098246e-01 3.2674388040997734e+01
ITEM: ATOMS id mol type x y z vx vy vz fx fy fz ix iy iz 
2917 28 4 6.56665 20.1692 28.7751 0.00359392 0.00243265 -0.000266258 3.60381 -1.63862 0.532679 1 0 1 
2918 28 5 7.47025 19.9624 28.5364 0.00646011 -0.00277311 0.0150856 -0.459006 -0.0214168 0.101588 1 0 1 
2919 28 5 6.12059 19.3223 28.7825 0.000644847 0.00399585 0.00078096 -0.095403 0.0980013 -0.377129 1 0 1 
