ITEM: TIMESTEP
110000
ITEM: NUMBER OF ATOMS
3
ITEM: BOX BOUNDS pp pp pp
2.9212887104134849e-01 3.4000116862142733e+01
-2.0402778275555207e+00 3.2369644558584852e+01
-6.2990604099098246e-01 3.2674388040997734e+01
ITEM: ATOMS id mol type x y z vx vy vz fx fy fz ix iy iz 
2918 28 5 8.1123 20.0093 30.2455 0.00657664 0.0048452 0.00335889 -0.106162 0.396733 -0.872728 1 0 1 
2917 28 4 8.96789 19.9633 29.8187 0.00259536 0.0058917 -0.00474985 0.67489 5.96831 -1.66476 1 0 1 
2919 28 5 8.93911 20.6467 29.1491 -0.00954023 -0.00315513 -0.0134704 0.397091 0.0374006 0.63272 1 0 1 
