ITEM: TIMESTEP
20000
ITEM: NUMBER OF ATOMS
3
ITEM: BOX BOUNDS pp pp pp
2.9212887104134849e-01 3.4000116862142733e+01
-2.0402778275555207e+00 3.2369644558584852e+01
-6.2990604099098246e-01 3.2674388040997734e+01
ITEM: ATOMS id mol type x y z vx vy vz fx fy fz ix iy iz 
2918 28 5 7.90881 19.63 28.5696 -0.0118321 -0.0145793 0.0012412 -1.25448 -0.220778 0.460793 1 0 1 
2919 28 5 7.06122 20.8799 28.6761 0.0122658 0.00301841 -0.0135097 0.129786 -1.36542 -0.154149 1 0 1 
2917 28 4 7.60143 20.285 29.1963 -0.00430654 -0.00482367 -0.00526602 0.364643 3.36214 -1.76623 1 0 1 
