ITEM: TIMESTEP
870000
ITEM: NUMBER OF ATOMS
3
ITEM: BOX BOUNDS pp pp pp
2.9212887104134849e-01 3.4000116862142733e+01
-2.0402778275555207e+00 3.2369644558584852e+01
-6.2990604099098246e-01 3.2674388040997734e+01
ITEM: ATOMS id mol type x y z vx vy vz fx fy fz ix iy iz 
2919 28 5 8.27263 21.3517 29.4778 0.00140772 0.00210524 0.0268357 0.0507249 -2.09698 1.03748 1 0 1 
2917 28 4 7.87149 20.4829 29.5008 -0.000112357 0.0020834 -0.00175283 1.12518 2.18581 -2.66174 1 0 1 
2918 28 5 8.61154 19.8782 29.555 -0.00141583 -0.000721082 -0.0152528 -0.0541001 0.729506 -0.387932 1 0 1 
