ITEM: TIMESTEP
1020000
ITEM: NUMBER OF ATOMS
3
ITEM: BOX BOUNDS pp pp pp
2.9212887104134849e-01 3.4000116862142733e+01
-2.0402778275555207e+00 3.2369644558584852e+01
-6.2990604099098246e-01 3.2674388040997734e+01
ITEM: ATOMS id mol type x y z vx vy vz fx fy fz ix iy iz 
2917 28 4 8.16321 20.7064 29.0766 0.00556874 0.00259437 -0.00164658 -6.35329 -3.00485 1.03817 1 0 1 
2918 28 5 7.20651 20.7208 29.0493 0.00544987 -0.0142724 -0.00620216 0.333903 -0.772674 0.995103 1 0 1 
2919 28 5 8.38561 21.1148 29.9132 -0.00540512 0.0141247 -0.00436231 -0.554734 -0.12199 -0.677525 1 0 1 
