ITEM: TIMESTEP
230000
ITEM: NUMBER OF ATOMS
3
ITEM: BOX BOUNDS pp pp pp
2.9212887104134849e-01 3.4000116862142733e+01
-2.0402778275555207e+00 3.2369644558584852e+01
-6.2990604099098246e-01 3.2674388040997734e+01
ITEM: ATOMS id mol type x y z vx vy vz fx fy fz ix iy iz 
2918 28 5 6.96321 20.478 28.8819 -0.00996526 0.0421244 0.00528569 3.7543 -1.61591 2.14623 1 0 1 
2919 28 5 8.44527 20.7121 29.0834 -0.00162192 -0.00681904 0.00124264 -0.259541 0.19036 -0.149541 1 0 1 
2917 28 4 7.66013 20.4003 29.5334 -0.00676852 -9.07953e-05 -0.00307618 -2.28677 4.72678 -5.67737 1 0 1 
