ITEM: TIMESTEP
440000
ITEM: NUMBER OF ATOMS
3
ITEM: BOX BOUNDS pp pp pp
2.9212887104134849e-01 3.4000116862142733e+01
-2.0402778275555207e+00 3.2369644558584852e+01
-6.2990604099098246e-01 3.2674388040997734e+01
ITEM: ATOMS id mol type x y z vx vy vz fx fy fz ix iy iz 
2917 28 4 7.70441 20.4038 28.5764 -0.00206777 0.0054781 -0.00403363 2.65865 -1.85059 2.38494 1 0 1 
2919 28 5 7.39312 20.0544 29.4114 0.0328295 -0.00117878 0.0061924 1.14976 -0.338398 -3.52672 1 0 1 
2918 28 5 8.26158 19.712 28.2196 -0.0151729 0.00924144 -0.0317648 -2.87604 0.233629 1.17854 1 0 1 
