ITEM: TIMESTEP
250000
ITEM: NUMBER OF ATOMS
3
ITEM: BOX BOUNDS pp pp pp
2.9212887104134849e-01 3.4000116862142733e+01
-2.0402778275555207e+00 3.2369644558584852e+01
-6.2990604099098246e-01 3.2674388040997734e+01
ITEM: ATOMS id mol type x y z vx vy vz fx fy fz ix iy iz 
2919 28 5 6.92785 19.179 28.3517 0.0240774 -0.00016462 0.00406627 -0.893696 1.38938 -0.645794 1 0 1 
2918 28 5 6.92266 20.5617 27.7351 -0.0222406 -0.00271103 -0.00131483 0.00075854 -1.48814 1.42417 1 0 1 
2917 28 4 6.89728 20.1086 28.5779 0.0054939 -3.78198e-06 0.000971246 1.42312 4.85426 2.44751 1 0 1 
