ITEM: TIMESTEP
690000
ITEM: NUMBER OF ATOMS
3
ITEM: BOX BOUNDS pp pp pp
2.9212887104134849e-01 3.4000116862142733e+01
-2.0402778275555207e+00 3.2369644558584852e+01
-6.2990604099098246e-01 3.2674388040997734e+01
ITEM: ATOMS id mol type x y z vx vy vz fx fy fz ix iy iz 
2917 28 4 7.1274 20.4112 28.839 -0.000853901 0.000849594 0.00285734 -0.428702 -0.72586 0.980872 1 0 1 
2919 28 5 7.33074 20.0918 27.9599 -0.00395911 -0.0163995 0.00839532 -0.501491 0.869597 0.545933 1 0 1 
2918 28 5 6.82487 19.6359 29.312 0.0095302 0.00833493 0.0217874 0.049982 0.921789 -0.9648 1 0 1 
