ITEM: TIMESTEP
90000
ITEM: NUMBER OF ATOMS
3
ITEM: BOX BOUNDS pp pp pp
2.9212887104134849e-01 3.4000116862142733e+01
-2.0402778275555207e+00 3.2369644558584852e+01
-6.2990604099098246e-01 3.2674388040997734e+01
ITEM: ATOMS id mol type x y z vx vy vz fx fy fz ix iy iz 
2918 28 5 8.07618 19.3874 27.8423 0.00683541 -0.0228535 0.0103852 1.06681 1.47369 1.19439 1 0 1 
2919 28 5 9.55949 19.3953 28.145 0.00662354 0.00981861 0.010603 -0.44186 1.03462 0.0970603 1 0 1 
2917 28 4 8.73533 19.8178 28.3868 -0.000389427 0.00287368 -0.00118053 -4.15232 -0.81646 4.0164 1 0 1 
