ITEM: TIMESTEP
450000
ITEM: NUMBER OF ATOMS
3
ITEM: BOX BOUNDS pp pp pp
2.9212887104134849e-01 3.4000116862142733e+01
-2.0402778275555207e+00 3.2369644558584852e+01
-6.2990604099098246e-01 3.2674388040997734e+01
ITEM: ATOMS id mol type x y z vx vy vz fx fy fz ix iy iz 
2918 28 5 6.35549 19.2767 28.8676 -0.00997991 -0.00657001 0.00752421 -0.74582 -0.0731465 -1.24413 1 0 1 
2919 28 5 5.24466 19.9428 29.6515 -0.00636747 0.00660737 0.00144274 0.0515907 0.106554 -0.954636 1 0 1 
2917 28 4 5.97176 20.1326 29.0586 -0.00086761 -0.00202821 0.0054359 10.5324 -1.20685 3.64099 1 0 1 
