ITEM: TIMESTEP
280000
ITEM: NUMBER OF ATOMS
3
ITEM: BOX BOUNDS pp pp pp
2.9212887104134849e-01 3.4000116862142733e+01
-2.0402778275555207e+00 3.2369644558584852e+01
-6.2990604099098246e-01 3.2674388040997734e+01
ITEM: ATOMS id mol type x y z vx vy vz fx fy fz ix iy iz 
2918 28 5 7.06378 20.5043 28.0768 -0.00433498 -0.000127459 0.0106109 0.304821 1.00028 -1.04292 1 0 1 
2917 28 4 7.98601 20.7234 27.9436 -0.00624287 -0.00309422 -0.00758779 -1.97244 -3.67702 2.94266 1 0 1 
2919 28 5 8.46535 20.0041 28.3548 -0.000235764 0.0137711 0.0149385 0.310623 1.60324 -1.97094 1 0 1 
