ITEM: TIMESTEP
930000
ITEM: NUMBER OF ATOMS
3
ITEM: BOX BOUNDS pp pp pp
2.9212887104134849e-01 3.4000116862142733e+01
-2.0402778275555207e+00 3.2369644558584852e+01
-6.2990604099098246e-01 3.2674388040997734e+01
ITEM: ATOMS id mol type x y z vx vy vz fx fy fz ix iy iz 
2919 28 5 7.4892 20.9369 28.6471 0.000581604 -0.00131269 0.00469303 -0.440859 -0.00971697 0.299111 1 0 1 
2917 28 4 8.03145 20.3562 29.181 0.00348537 4.04906e-05 0.00321355 -2.6727 2.40725 2.24752 1 0 1 
2918 28 5 7.43872 19.6544 29.4498 0.00153675 0.0078685 0.0194511 1.31076 -0.534487 -1.34175 1 0 1 
