ITEM: TIMESTEP
590000
ITEM: NUMBER OF ATOMS
3
ITEM: BOX BOUNDS pp pp pp
2.9212887104134849e-01 3.4000116862142733e+01
-2.0402778275555207e+00 3.2369644558584852e+01
-6.2990604099098246e-01 3.2674388040997734e+01
ITEM: ATOMS id mol type x y z vx vy vz fx fy fz ix iy iz 
2919 28 5 6.62089 20.3766 28.2793 6.29519e-06 0.00491443 -0.00929214 -0.481113 -0.291839 0.901382 1 0 1 
2917 28 4 7.11305 20.6654 29.0478 -0.00233788 -0.00737254 -0.0031618 -0.743798 -0.325209 -1.39179 1 0 1 
2918 28 5 7.98055 20.2762 28.9375 0.000282632 0.000546435 -0.0105284 -0.303409 0.00696531 0.503954 1 0 1 
