ITEM: TIMESTEP
640000
ITEM: NUMBER OF ATOMS
3
ITEM: BOX BOUNDS pp pp pp
2.9212887104134849e-01 3.4000116862142733e+01
-2.0402778275555207e+00 3.2369644558584852e+01
-6.2990604099098246e-01 3.2674388040997734e+01
ITEM: ATOMS id mol type x y z vx vy vz fx fy fz ix iy iz 
2917 28 4 9.13374 19.329 29.7399 -0.000849319 -0.00558969 0.00409243 5.73947 3.11278 -8.39589 1 0 1 
2919 28 5 9.25603 20.1716 29.3026 -0.0207772 -0.0142381 -0.0182066 -0.513551 -1.00269 2.26477 1 0 1 
2918 28 5 9.99511 19.1185 30.1004 0.00864027 0.0154533 -0.00627548 -1.57124 1.12905 0.348572 1 0 1 
