ITEM: TIMESTEP
610000
ITEM: NUMBER OF ATOMS
3
ITEM: BOX BOUNDS pp pp pp
2.9212887104134849e-01 3.4000116862142733e+01
-2.0402778275555207e+00 3.2369644558584852e+01
-6.2990604099098246e-01 3.2674388040997734e+01
ITEM: ATOMS id mol type x y z vx vy vz fx fy fz ix iy iz 
2918 28 5 8.29399 19.0495 28.9418 0.0106597 0.00314406 0.0034262 -0.761105 0.612743 0.00186731 1 0 1 
2917 28 4 8.09509 19.9816 29.0304 0.00229352 0.00141124 0.00293531 0.271059 9.15368 2.12277 1 0 1 
2919 28 5 8.58398 20.2588 29.8053 -0.018354 0.00107668 0.0161075 0.188159 -0.608972 -1.41748 1 0 1 
