ITEM: TIMESTEP
500000
ITEM: NUMBER OF ATOMS
3
ITEM: BOX BOUNDS pp pp pp
2.9212887104134849e-01 3.4000116862142733e+01
-2.0402778275555207e+00 3.2369644558584852e+01
-6.2990604099098246e-01 3.2674388040997734e+01
ITEM: ATOMS id mol type x y z vx vy vz fx fy fz ix iy iz 
2917 28 4 8.47524 20.5131 29.4679 0.000815263 -0.00199378 -0.00196293 -0.65098 4.80538 -4.84365 1 0 1 
2918 28 5 8.94494 20.1387 28.7226 -0.00700225 -0.00167447 -0.00705503 -0.331359 -1.77618 0.841118 1 0 1 
2919 28 5 8.22505 21.3903 29.1778 -0.0442933 -0.0196455 -0.0165437 1.69647 -5.02259 3.40941 1 0 1 
