ITEM: TIMESTEP
350000
ITEM: NUMBER OF ATOMS
3
ITEM: BOX BOUNDS pp pp pp
2.9212887104134849e-01 3.4000116862142733e+01
-2.0402778275555207e+00 3.2369644558584852e+01
-6.2990604099098246e-01 3.2674388040997734e+01
ITEM: ATOMS id mol type x y z vx vy vz fx fy fz ix iy iz 
2918 28 5 8.62985 19.644 29.4337 0.0108144 0.00892421 -0.0291301 -1.07943 1.86485 0.0376289 1 0 1 
2917 28 4 8.16536 20.463 29.6057 0.00406322 -0.000766671 -0.0012441 1.14658 -2.3464 -2.01052 1 0 1 
2919 28 5 8.84909 21.0731 29.8823 0.00129705 4.28665e-05 0.0038084 0.161532 -0.410371 -0.0631103 1 0 1 
