ITEM: TIMESTEP
270000
ITEM: NUMBER OF ATOMS
3
ITEM: BOX BOUNDS pp pp pp
2.9212887104134849e-01 3.4000116862142733e+01
-2.0402778275555207e+00 3.2369644558584852e+01
-6.2990604099098246e-01 3.2674388040997734e+01
ITEM: ATOMS id mol type x y z vx vy vz fx fy fz ix iy iz 
2919 28 5 8.22475 20.4056 27.5503 0.0342538 0.000516702 0.00823677 -1.76145 0.744612 1.35128 1 0 1 
2917 28 4 7.82516 20.4202 28.42 0.00888065 -0.00476762 -0.00331349 -2.2014 -0.354902 -1.95398 1 0 1 
2918 28 5 7.66804 19.4991 28.6275 0.0200686 -0.00719647 -0.0055818 -0.772464 0.643051 0.766246 1 0 1 
