ITEM: TIMESTEP
780000
ITEM: NUMBER OF ATOMS
3
ITEM: BOX BOUNDS pp pp pp
2.9212887104134849e-01 3.4000116862142733e+01
-2.0402778275555207e+00 3.2369644558584852e+01
-6.2990604099098246e-01 3.2674388040997734e+01
ITEM: ATOMS id mol type x y z vx vy vz fx fy fz ix iy iz 
2917 28 4 7.98386 20.9041 28.3201 0.00172988 0.000187128 0.00192498 -2.00273 -1.45021 -0.755834 1 0 1 
2918 28 5 7.59177 20.4577 27.5696 0.018124 0.015668 -0.0158491 1.58715 -0.0175814 1.66287 1 0 1 
2919 28 5 7.411 20.6859 29.0552 -0.0202321 -0.00639648 -0.0171265 1.76401 -0.0799733 -1.48667 1 0 1 
