ITEM: TIMESTEP
100000
ITEM: NUMBER OF ATOMS
3
ITEM: BOX BOUNDS pp pp pp
2.9212887104134849e-01 3.4000116862142733e+01
-2.0402778275555207e+00 3.2369644558584852e+01
-6.2990604099098246e-01 3.2674388040997734e+01
ITEM: ATOMS id mol type x y z vx vy vz fx fy fz ix iy iz 
2918 28 5 6.63854 19.862 28.6808 -0.000561848 0.0134741 -0.0162639 1.65973 0.558289 -1.36543 1 0 1 
2917 28 4 7.53332 20.1978 28.6279 0.00552275 0.000975387 0.00788846 -0.758893 -3.43136 3.95399 1 0 1 
2919 28 5 8.02917 19.6578 29.2433 -0.00965813 -0.0346391 -0.0111129 -1.42263 2.73355 -3.35167 1 0 1 
