ITEM: TIMESTEP
680000
ITEM: NUMBER OF ATOMS
3
ITEM: BOX BOUNDS pp pp pp
2.9212887104134849e-01 3.4000116862142733e+01
-2.0402778275555207e+00 3.2369644558584852e+01
-6.2990604099098246e-01 3.2674388040997734e+01
ITEM: ATOMS id mol type x y z vx vy vz fx fy fz ix iy iz 
2917 28 4 8.1914 20.542 29.2873 0.00270559 0.0043792 0.000300769 -0.797798 -1.40027 -0.699382 1 0 1 
2918 28 5 7.97283 20.0524 30.0802 0.0154793 0.0101399 0.00737836 -0.143272 0.648948 -0.363627 1 0 1 
2919 28 5 8.47873 19.8743 28.6645 4.95951e-05 0.00065768 0.00307112 -1.0928 -0.504407 0.032528 1 0 1 
