ITEM: TIMESTEP
940000
ITEM: NUMBER OF ATOMS
3
ITEM: BOX BOUNDS pp pp pp
2.9212887104134849e-01 3.4000116862142733e+01
-2.0402778275555207e+00 3.2369644558584852e+01
-6.2990604099098246e-01 3.2674388040997734e+01
ITEM: ATOMS id mol type x y z vx vy vz fx fy fz ix iy iz 
2919 28 5 7.35239 20.3589 28.8512 0.00193663 -0.00288472 0.00654283 -0.436505 0.0171602 -0.925539 1 0 1 
2917 28 4 8.01003 21.0168 28.6257 -0.00115695 -0.00185299 0.000503472 -0.0196306 -3.76684 1.69639 1 0 1 
2918 28 5 8.82185 20.6864 29.0103 -0.00448508 0.0173477 0.0239637 -2.01354 1.20645 -0.238135 1 0 1 
