ITEM: TIMESTEP
540000
ITEM: NUMBER OF ATOMS
3
ITEM: BOX BOUNDS pp pp pp
2.9212887104134849e-01 3.4000116862142733e+01
-2.0402778275555207e+00 3.2369644558584852e+01
-6.2990604099098246e-01 3.2674388040997734e+01
ITEM: ATOMS id mol type x y z vx vy vz fx fy fz ix iy iz 
2917 28 4 7.9209 20.6688 28.4087 -0.00140789 0.00201386 -0.00424523 7.26974 -1.42331 0.98301 1 0 1 
2919 28 5 8.32544 21.1619 29.1224 -0.00457693 -0.0136601 0.00835622 -0.548616 -1.27578 0.0514516 1 0 1 
2918 28 5 7.9422 19.7584 28.7038 -0.0113795 -0.00331423 -0.0200169 -0.52126 0.611548 -0.781613 1 0 1 
