ITEM: TIMESTEP
730000
ITEM: NUMBER OF ATOMS
3
ITEM: BOX BOUNDS pp pp pp
2.9212887104134849e-01 3.4000116862142733e+01
-2.0402778275555207e+00 3.2369644558584852e+01
-6.2990604099098246e-01 3.2674388040997734e+01
ITEM: ATOMS id mol type x y z vx vy vz fx fy fz ix iy iz 
2919 28 5 7.61137 20.9343 29.9797 -0.0193641 0.0202772 0.00251298 0.579049 0.665653 -2.3674 1 0 1 
2917 28 4 7.12846 20.7095 29.1844 0.000244186 0.00447408 -0.00493658 3.01538 -6.14894 4.12982 1 0 1 
2918 28 5 6.64821 19.9134 29.4123 -0.0191637 0.0189044 0.00464269 0.64053 0.634837 -2.38888 1 0 1 
