ITEM: TIMESTEP
900000
ITEM: NUMBER OF ATOMS
3
ITEM: BOX BOUNDS pp pp pp
2.9212887104134849e-01 3.4000116862142733e+01
-2.0402778275555207e+00 3.2369644558584852e+01
-6.2990604099098246e-01 3.2674388040997734e+01
ITEM: ATOMS id mol type x y z vx vy vz fx fy fz ix iy iz 
2918 28 5 9.81701 20.0985 29.3339 0.0106957 0.00163959 0.0049226 -0.350581 -0.523934 -0.0684369 1 0 1 
2919 28 5 9.12221 20.5629 30.5963 0.00663287 0.00947103 -0.000199633 0.392518 0.739566 -0.323553 1 0 1 
2917 28 4 8.95609 20.3291 29.683 0.00959114 0.00393597 0.00068255 -1.74478 -2.1127 1.55152 1 0 1 
