ITEM: TIMESTEP
580000
ITEM: NUMBER OF ATOMS
3
ITEM: BOX BOUNDS pp pp pp
2.9212887104134849e-01 3.4000116862142733e+01
-2.0402778275555207e+00 3.2369644558584852e+01
-6.2990604099098246e-01 3.2674388040997734e+01
ITEM: ATOMS id mol type x y z vx vy vz fx fy fz ix iy iz 
2917 28 4 8.1256 20.2688 28.5123 0.00262733 0.00359131 -0.00210567 -4.75434 -0.154532 4.67824 1 0 1 
2918 28 5 7.78205 19.3761 28.4748 0.00272059 0.00471508 -0.0293057 0.867378 1.56943 -0.326319 1 0 1 
2919 28 5 7.49254 20.7905 28.019 0.00970553 0.0163399 0.00229119 0.626935 -0.46907 -0.246098 1 0 1 
