ITEM: TIMESTEP
190000
ITEM: NUMBER OF ATOMS
3
ITEM: BOX BOUNDS pp pp pp
2.9212887104134849e-01 3.4000116862142733e+01
-2.0402778275555207e+00 3.2369644558584852e+01
-6.2990604099098246e-01 3.2674388040997734e+01
ITEM: ATOMS id mol type x y z vx vy vz fx fy fz ix iy iz 
2919 28 5 7.48549 20.2807 29.1479 0.00494763 -0.000863023 0.0150131 -0.0104022 -0.0760636 -0.110908 1 0 1 
2918 28 5 7.96606 19.0973 28.3352 -0.0159858 0.00945571 -0.0123761 0.480402 2.65847 0.0398992 1 0 1 
2917 28 4 8.24853 19.9455 28.677 0.000295991 -0.0052568 0.0106009 -1.19623 -0.596628 1.04067 1 0 1 
