ITEM: TIMESTEP
530000
ITEM: NUMBER OF ATOMS
3
ITEM: BOX BOUNDS pp pp pp
2.9212887104134849e-01 3.4000116862142733e+01
-2.0402778275555207e+00 3.2369644558584852e+01
-6.2990604099098246e-01 3.2674388040997734e+01
ITEM: ATOMS id mol type x y z vx vy vz fx fy fz ix iy iz 
2918 28 5 9.65901 20.0149 29.9924 0.0124657 0.00689905 -0.0315447 -1.84813 -3.19333 -1.4261 1 0 1 
2917 28 4 8.8508 19.8092 29.5226 -0.00190655 -0.00381871 -0.00215836 -0.357621 1.61082 1.29995 1 0 1 
2919 28 5 8.97388 18.9111 29.2152 -0.0169494 -0.0156504 0.02632 1.56633 3.03811 1.38239 1 0 1 
