ITEM: TIMESTEP
120000
ITEM: NUMBER OF ATOMS
3
ITEM: BOX BOUNDS pp pp pp
2.9212887104134849e-01 3.4000116862142733e+01
-2.0402778275555207e+00 3.2369644558584852e+01
-6.2990604099098246e-01 3.2674388040997734e+01
ITEM: ATOMS id mol type x y z vx vy vz fx fy fz ix iy iz 
2917 28 4 8.1089 20.1282 28.9768 -0.000927862 0.00098191 0.00591304 -1.46196 0.438517 -0.363808 1 0 1 
2918 28 5 7.54208 20.8805 29.1469 -0.000478345 -0.0011084 0.0166466 0.0924099 -0.23254 0.0458661 1 0 1 
2919 28 5 7.54902 19.506 28.5123 -0.006216 0.00070411 0.0126565 0.348636 -0.146869 0.0610546 1 0 1 
