ITEM: TIMESTEP
720000
ITEM: NUMBER OF ATOMS
3
ITEM: BOX BOUNDS pp pp pp
2.9212887104134849e-01 3.4000116862142733e+01
-2.0402778275555207e+00 3.2369644558584852e+01
-6.2990604099098246e-01 3.2674388040997734e+01
ITEM: ATOMS id mol type x y z vx vy vz fx fy fz ix iy iz 
2919 28 5 9.98308 20.0003 29.6361 -0.00288608 -0.00386792 0.00640427 -0.53858 -0.461741 1.87028 1 0 1 
2917 28 4 9.04456 20.1729 29.5609 -0.00209234 -0.00137048 0.00231212 -4.7564 -4.343 1.47234 1 0 1 
2918 28 5 8.65586 19.3152 29.389 -0.00328291 0.000132264 -0.00246923 -0.0142259 -0.115113 -0.968572 1 0 1 
