ITEM: TIMESTEP
470000
ITEM: NUMBER OF ATOMS
3
ITEM: BOX BOUNDS pp pp pp
2.9212887104134849e-01 3.4000116862142733e+01
-2.0402778275555207e+00 3.2369644558584852e+01
-6.2990604099098246e-01 3.2674388040997734e+01
ITEM: ATOMS id mol type x y z vx vy vz fx fy fz ix iy iz 
2919 28 5 7.31818 20.5564 27.5451 0.0127508 0.0188513 0.00112705 0.880891 -0.95445 0.451836 1 0 1 
2917 28 4 7.54954 20.5862 28.4734 0.00546784 0.00517842 0.00338703 -2.60333 0.950229 0.676629 1 0 1 
2918 28 5 6.93726 19.9817 28.8929 0.00703785 -0.00661186 -0.0113402 0.86278 -0.0367792 -0.657756 1 0 1 
